<?xml version="1.0" encoding="UTF-8"?>

<!-- generated on 2025-06-07 19:06:18 by Eclipse SUMO sumo Version 1.21.0
<sumoConfiguration xmlns:xsi="http://www.w3.org/2001/XMLSchema-instance" xsi:noNamespaceSchemaLocation="http://sumo.dlr.de/xsd/sumoConfiguration.xsd">

    <input>
        <net-file value="map.net.xml"/>
        <route-files value="routes.rou.xml"/>
    </input>

    <output>
        <tripinfo-output value="tripinfo.xml"/>
    </output>

    <time>
        <begin value="0"/>
        <end value="1000"/>
    </time>

    <report>
        <no-warnings value="true"/>
    </report>

    <traci_server>
        <remote-port value="55040"/>
    </traci_server>

</sumoConfiguration>
-->

<tripinfos xmlns:xsi="http://www.w3.org/2001/XMLSchema-instance" xsi:noNamespaceSchemaLocation="http://sumo.dlr.de/xsd/tripinfo_file.xsd">
    <tripinfo id="veh105" depart="36.00" departLane="edge773_0" departPos="6.55" departSpeed="0.00" departDelay="0.00" arrival="57.00" arrivalLane="edge1576_2" arrivalPos="5.52" arrivalSpeed="8.22" duration="21.00" routeLength="133.51" waitingTime="0.00" waitingCount="0" stopTime="0.00" timeLoss="4.62" rerouteNo="0" devices="tripinfo_veh105" vType="bus" speedFactor="1.00" vaporized=""/>
    <tripinfo id="veh107" depart="38.00" departLane="edge773_0" departPos="5.10" departSpeed="0.00" departDelay="2.00" arrival="61.00" arrivalLane="edge1576_2" arrivalPos="5.52" arrivalSpeed="8.01" duration="23.00" routeLength="134.96" waitingTime="3.00" waitingCount="1" stopTime="0.00" timeLoss="6.25" rerouteNo="0" devices="tripinfo_veh107" vType="passenger" speedFactor="0.97" vaporized=""/>
    <tripinfo id="veh106" depart="37.00" departLane="edge773_0" departPos="6.55" departSpeed="0.00" departDelay="1.00" arrival="64.00" arrivalLane="edge1576_2" arrivalPos="5.52" arrivalSpeed="7.94" duration="27.00" routeLength="133.51" waitingTime="4.00" waitingCount="2" stopTime="0.00" timeLoss="10.80" rerouteNo="0" devices="tripinfo_veh106" vType="truck" speedFactor="1.01" vaporized=""/>
    <tripinfo id="veh57" depart="20.00" departLane="edge459_0" departPos="12.10" departSpeed="0.00" departDelay="0.00" arrival="77.00" arrivalLane="edge1082_1" arrivalPos="3.97" arrivalSpeed="13.49" duration="57.00" routeLength="587.68" waitingTime="0.00" waitingCount="0" stopTime="0.00" timeLoss="12.89" rerouteNo="0" devices="tripinfo_veh57" vType="bus" speedFactor="1.00" vaporized=""/>
    <tripinfo id="veh3" depart="1.00" departLane="edge1507_0" departPos="12.10" departSpeed="0.00" departDelay="0.00" arrival="83.00" arrivalLane="edge1411_2" arrivalPos="24.65" arrivalSpeed="13.68" duration="82.00" routeLength="953.40" waitingTime="0.00" waitingCount="0" stopTime="0.00" timeLoss="11.52" rerouteNo="0" devices="tripinfo_veh3" vType="bus" speedFactor="1.00" vaporized=""/>
    <tripinfo id="veh201" depart="69.00" departLane="edge571_0" departPos="12.10" departSpeed="0.00" departDelay="0.00" arrival="86.00" arrivalLane="edge1232_2" arrivalPos="2.15" arrivalSpeed="8.03" duration="17.00" routeLength="98.67" waitingTime="0.00" waitingCount="0" stopTime="0.00" timeLoss="4.44" rerouteNo="0" devices="tripinfo_veh201" vType="bus" speedFactor="1.00" vaporized=""/>
    <tripinfo id="veh202" depart="70.00" departLane="edge571_0" departPos="7.20" departSpeed="0.00" departDelay="1.00" arrival="91.00" arrivalLane="edge1232_2" arrivalPos="2.15" arrivalSpeed="8.95" duration="21.00" routeLength="103.57" waitingTime="2.00" waitingCount="1" stopTime="0.00" timeLoss="8.45" rerouteNo="0" devices="tripinfo_veh202" vType="truck" speedFactor="1.11" vaporized=""/>
    <tripinfo id="veh203" depart="71.00" departLane="edge571_0" departPos="5.10" departSpeed="0.00" departDelay="2.00" arrival="96.00" arrivalLane="edge1232_2" arrivalPos="2.15" arrivalSpeed="8.14" duration="25.00" routeLength="105.67" waitingTime="5.00" waitingCount="2" stopTime="0.00" timeLoss="11.01" rerouteNo="0" devices="tripinfo_veh203" vType="passenger" speedFactor="1.01" vaporized=""/>
    <tripinfo id="veh144" depart="50.00" departLane="edge1019_0" departPos="12.10" departSpeed="0.00" departDelay="0.00" arrival="98.00" arrivalLane="edge486_2" arrivalPos="3.55" arrivalSpeed="8.08" duration="48.00" routeLength="199.05" waitingTime="11.00" waitingCount="3" stopTime="0.00" timeLoss="23.67" rerouteNo="0" devices="tripinfo_veh144" vType="bus" speedFactor="1.00" vaporized=""/>
    <tripinfo id="veh145" depart="51.00" departLane="edge1019_0" departPos="7.20" departSpeed="0.00" departDelay="1.00" arrival="98.00" arrivalLane="edge486_1" arrivalPos="3.55" arrivalSpeed="7.96" duration="47.00" routeLength="203.95" waitingTime="10.00" waitingCount="3" stopTime="0.00" timeLoss="22.55" rerouteNo="0" devices="tripinfo_veh145" vType="truck" speedFactor="1.00" vaporized=""/>
    <tripinfo id="veh146" depart="56.00" departLane="edge1019_0" departPos="5.10" departSpeed="0.00" departDelay="6.00" arrival="101.00" arrivalLane="edge486_2" arrivalPos="3.55" arrivalSpeed="6.57" duration="45.00" routeLength="206.05" waitingTime="5.00" waitingCount="2" stopTime="0.00" timeLoss="17.70" rerouteNo="0" devices="tripinfo_veh146" vType="passenger" speedFactor="0.91" vaporized=""/>
    <tripinfo id="veh123" depart="43.00" departLane="edge995_0" departPos="0.20" departSpeed="0.00" departDelay="0.00" arrival="106.00" arrivalLane="edge1938_0" arrivalPos="0.86" arrivalSpeed="4.61" duration="63.00" routeLength="217.37" waitingTime="28.00" waitingCount="1" stopTime="0.00" timeLoss="46.49" rerouteNo="0" devices="tripinfo_veh123" vType="bus" speedFactor="1.00" vaporized=""/>
    <tripinfo id="veh117" depart="41.00" departLane="edge239_0" departPos="12.10" departSpeed="0.00" departDelay="0.00" arrival="107.00" arrivalLane="edge814_2" arrivalPos="10.65" arrivalSpeed="13.41" duration="66.00" routeLength="610.74" waitingTime="0.00" waitingCount="0" stopTime="0.00" timeLoss="7.04" rerouteNo="0" devices="tripinfo_veh117" vType="bus" speedFactor="1.00" vaporized=""/>
    <tripinfo id="veh189" depart="74.00" departLane="edge1567_0" departPos="3.57" departSpeed="0.00" departDelay="9.00" arrival="111.00" arrivalLane="edge1103_2" arrivalPos="7.86" arrivalSpeed="13.46" duration="37.00" routeLength="350.65" waitingTime="0.00" waitingCount="0" stopTime="0.00" timeLoss="10.06" rerouteNo="0" devices="tripinfo_veh189" vType="bus" speedFactor="1.00" vaporized=""/>
    <tripinfo id="veh190" depart="77.00" departLane="edge1567_0" departPos="3.57" departSpeed="0.00" departDelay="12.00" arrival="113.00" arrivalLane="edge1103_2" arrivalPos="7.86" arrivalSpeed="13.90" duration="36.00" routeLength="350.65" waitingTime="0.00" waitingCount="0" stopTime="0.00" timeLoss="9.94" rerouteNo="0" devices="tripinfo_veh190" vType="truck" speedFactor="1.02" vaporized=""/>
    <tripinfo id="veh124" depart="49.00" departLane="edge995_0" departPos="0.20" departSpeed="0.00" departDelay="6.00" arrival="117.00" arrivalLane="edge1938_0" arrivalPos="0.86" arrivalSpeed="6.04" duration="68.00" routeLength="217.37" waitingTime="25.00" waitingCount="1" stopTime="0.00" timeLoss="51.10" rerouteNo="0" devices="tripinfo_veh124" vType="truck" speedFactor="1.01" vaporized=""/>
    <tripinfo id="veh33" depart="11.00" departLane="edge163_0" departPos="12.10" departSpeed="0.00" departDelay="0.00" arrival="120.00" arrivalLane="edge1283_0" arrivalPos="9.69" arrivalSpeed="8.21" duration="109.00" routeLength="486.79" waitingTime="50.00" waitingCount="1" stopTime="0.00" timeLoss="68.35" rerouteNo="0" devices="tripinfo_veh33" vType="bus" speedFactor="1.00" vaporized=""/>
    <tripinfo id="veh125" depart="54.00" departLane="edge995_0" departPos="0.20" departSpeed="0.00" departDelay="11.00" arrival="121.00" arrivalLane="edge1938_0" arrivalPos="0.86" arrivalSpeed="5.06" duration="67.00" routeLength="217.37" waitingTime="24.00" waitingCount="1" stopTime="0.00" timeLoss="49.52" rerouteNo="0" devices="tripinfo_veh125" vType="passenger" speedFactor="0.97" vaporized=""/>
    <tripinfo id="veh191" depart="80.00" departLane="edge1567_0" departPos="3.57" departSpeed="0.00" departDelay="15.00" arrival="121.00" arrivalLane="edge1103_2" arrivalPos="7.86" arrivalSpeed="11.34" duration="41.00" routeLength="350.65" waitingTime="1.00" waitingCount="1" stopTime="0.00" timeLoss="8.36" rerouteNo="0" devices="tripinfo_veh191" vType="passenger" speedFactor="0.82" vaporized=""/>
    <tripinfo id="veh34" depart="16.00" departLane="edge163_0" departPos="7.20" departSpeed="0.00" departDelay="5.00" arrival="123.00" arrivalLane="edge1283_0" arrivalPos="9.69" arrivalSpeed="7.85" duration="107.00" routeLength="491.69" waitingTime="47.00" waitingCount="1" stopTime="0.00" timeLoss="65.81" rerouteNo="0" devices="tripinfo_veh34" vType="truck" speedFactor="0.99" vaporized=""/>
    <tripinfo id="veh41" depart="24.00" departLane="edge720_0" departPos="0.20" departSpeed="0.00" departDelay="10.00" arrival="123.00" arrivalLane="edge269_1" arrivalPos="53.87" arrivalSpeed="12.12" duration="99.00" routeLength="851.72" waitingTime="15.00" waitingCount="1" stopTime="0.00" timeLoss="32.38" rerouteNo="0" devices="tripinfo_veh41" vType="passenger" speedFactor="0.95" vaporized=""/>
    <tripinfo id="veh35" depart="20.00" departLane="edge163_0" departPos="5.10" departSpeed="0.00" departDelay="9.00" arrival="127.00" arrivalLane="edge1283_0" arrivalPos="9.69" arrivalSpeed="7.02" duration="107.00" routeLength="493.79" waitingTime="45.00" waitingCount="1" stopTime="0.00" timeLoss="61.75" rerouteNo="0" devices="tripinfo_veh35" vType="passenger" speedFactor="0.89" vaporized=""/>
    <tripinfo id="veh382" depart="130.00" departLane="edge781_0" departPos="0.20" departSpeed="0.00" departDelay="0.00" arrival="131.00" arrivalLane="edge781_0" arrivalPos="0.20" arrivalSpeed="0.79" duration="1.00" routeLength="0.00" waitingTime="0.00" waitingCount="0" stopTime="0.00" timeLoss="0.91" rerouteNo="0" devices="tripinfo_veh382" vType="bus" speedFactor="1.00" vaporized=""/>
    <tripinfo id="veh383" depart="131.00" departLane="edge781_0" departPos="0.20" departSpeed="0.00" departDelay="1.00" arrival="132.00" arrivalLane="edge781_0" arrivalPos="0.20" arrivalSpeed="1.00" duration="1.00" routeLength="0.00" waitingTime="0.00" waitingCount="0" stopTime="0.00" timeLoss="0.87" rerouteNo="0" devices="tripinfo_veh383" vType="truck" speedFactor="0.94" vaporized=""/>
    <tripinfo id="veh384" depart="132.00" departLane="edge781_0" departPos="0.20" departSpeed="0.00" departDelay="2.00" arrival="133.00" arrivalLane="edge781_0" arrivalPos="0.20" arrivalSpeed="2.21" duration="1.00" routeLength="0.00" waitingTime="0.00" waitingCount="0" stopTime="0.00" timeLoss="0.63" rerouteNo="0" devices="tripinfo_veh384" vType="passenger" speedFactor="0.71" vaporized=""/>
    <tripinfo id="veh39" depart="14.00" departLane="edge720_0" departPos="0.20" departSpeed="0.00" departDelay="0.00" arrival="138.00" arrivalLane="edge269_1" arrivalPos="53.87" arrivalSpeed="13.81" duration="124.00" routeLength="851.72" waitingTime="28.00" waitingCount="2" stopTime="0.00" timeLoss="60.30" rerouteNo="0" devices="tripinfo_veh39" vType="bus" speedFactor="1.00" vaporized=""/>
    <tripinfo id="veh93" depart="32.00" departLane="edge712_0" departPos="5.19" departSpeed="0.00" departDelay="0.00" arrival="139.00" arrivalLane="edge588_1" arrivalPos="4.41" arrivalSpeed="3.19" duration="107.00" routeLength="647.06" waitingTime="19.00" waitingCount="1" stopTime="0.00" timeLoss="37.62" rerouteNo="0" devices="tripinfo_veh93" vType="bus" speedFactor="1.00" vaporized=""/>
    <tripinfo id="veh94" depart="37.00" departLane="edge712_0" departPos="5.19" departSpeed="0.00" departDelay="5.00" arrival="142.00" arrivalLane="edge588_2" arrivalPos="4.41" arrivalSpeed="5.44" duration="105.00" routeLength="647.06" waitingTime="15.00" waitingCount="1" stopTime="0.00" timeLoss="36.43" rerouteNo="0" devices="tripinfo_veh94" vType="truck" speedFactor="1.01" vaporized=""/>
    <tripinfo id="veh95" depart="41.00" departLane="edge712_0" departPos="5.10" departSpeed="0.00" departDelay="9.00" arrival="142.00" arrivalLane="edge588_1" arrivalPos="4.41" arrivalSpeed="7.70" duration="101.00" routeLength="647.15" waitingTime="11.00" waitingCount="1" stopTime="0.00" timeLoss="30.57" rerouteNo="0" devices="tripinfo_veh95" vType="passenger" speedFactor="0.99" vaporized=""/>
    <tripinfo id="veh40" depart="19.00" departLane="edge720_0" departPos="0.20" departSpeed="0.00" departDelay="5.00" arrival="145.00" arrivalLane="edge269_1" arrivalPos="53.87" arrivalSpeed="12.69" duration="126.00" routeLength="851.72" waitingTime="26.00" waitingCount="2" stopTime="0.00" timeLoss="58.95" rerouteNo="0" devices="tripinfo_veh40" vType="truck" speedFactor="0.96" vaporized=""/>
    <tripinfo id="veh58" depart="21.00" departLane="edge459_0" departPos="7.20" departSpeed="0.00" departDelay="1.00" arrival="145.00" arrivalLane="edge1082_2" arrivalPos="3.97" arrivalSpeed="14.55" duration="124.00" routeLength="592.58" waitingTime="53.00" waitingCount="3" stopTime="0.00" timeLoss="81.59" rerouteNo="0" devices="tripinfo_veh58" vType="truck" speedFactor="1.05" vaporized=""/>
    <tripinfo id="veh4" depart="2.00" departLane="edge1507_0" departPos="7.20" departSpeed="0.00" departDelay="1.00" arrival="149.00" arrivalLane="edge1411_1" arrivalPos="24.65" arrivalSpeed="13.37" duration="147.00" routeLength="958.30" waitingTime="53.00" waitingCount="1" stopTime="0.00" timeLoss="76.61" rerouteNo="0" devices="tripinfo_veh4" vType="truck" speedFactor="1.01" vaporized=""/>
    <tripinfo id="veh5" depart="3.00" departLane="edge1507_0" departPos="5.10" departSpeed="0.00" departDelay="2.00" arrival="150.00" arrivalLane="edge1411_2" arrivalPos="24.65" arrivalSpeed="14.37" duration="147.00" routeLength="957.70" waitingTime="55.00" waitingCount="3" stopTime="0.00" timeLoss="82.11" rerouteNo="0" devices="tripinfo_veh5" vType="passenger" speedFactor="1.08" vaporized=""/>
    <tripinfo id="veh135" depart="47.00" departLane="edge1114_0" departPos="8.66" departSpeed="0.00" departDelay="0.00" arrival="153.00" arrivalLane="edge1701_0" arrivalPos="15.05" arrivalSpeed="7.95" duration="106.00" routeLength="696.97" waitingTime="35.00" waitingCount="1" stopTime="0.00" timeLoss="49.15" rerouteNo="0" devices="tripinfo_veh135" vType="bus" speedFactor="1.00" vaporized=""/>
    <tripinfo id="veh313" depart="107.00" departLane="edge92_0" departPos="0.20" departSpeed="0.00" departDelay="0.00" arrival="153.00" arrivalLane="edge990_0" arrivalPos="0.20" arrivalSpeed="7.94" duration="46.00" routeLength="416.62" waitingTime="0.00" waitingCount="0" stopTime="0.00" timeLoss="9.62" rerouteNo="0" devices="tripinfo_veh313" vType="bus" speedFactor="1.00" vaporized=""/>
    <tripinfo id="veh84" depart="29.00" departLane="edge1298_0" departPos="0.20" departSpeed="0.00" departDelay="0.00" arrival="154.00" arrivalLane="edge1699_2" arrivalPos="0.20" arrivalSpeed="13.41" duration="125.00" routeLength="567.80" waitingTime="33.00" waitingCount="2" stopTime="0.00" timeLoss="65.61" rerouteNo="0" devices="tripinfo_veh84" vType="bus" speedFactor="1.00" vaporized=""/>
    <tripinfo id="veh85" depart="35.00" departLane="edge1298_0" departPos="0.20" departSpeed="0.00" departDelay="6.00" arrival="155.00" arrivalLane="edge1699_1" arrivalPos="0.20" arrivalSpeed="12.84" duration="120.00" routeLength="567.80" waitingTime="26.00" waitingCount="3" stopTime="0.00" timeLoss="57.92" rerouteNo="0" devices="tripinfo_veh85" vType="truck" speedFactor="0.95" vaporized=""/>
    <tripinfo id="veh86" depart="40.00" departLane="edge1298_0" departPos="0.20" departSpeed="0.00" departDelay="11.00" arrival="156.00" arrivalLane="edge1699_2" arrivalPos="0.20" arrivalSpeed="15.79" duration="116.00" routeLength="567.80" waitingTime="23.00" waitingCount="4" stopTime="0.00" timeLoss="64.04" rerouteNo="0" devices="tripinfo_veh86" vType="passenger" speedFactor="1.14" vaporized=""/>
    <tripinfo id="veh136" depart="52.00" departLane="edge1114_0" departPos="7.20" departSpeed="0.00" departDelay="5.00" arrival="156.00" arrivalLane="edge1701_0" arrivalPos="15.05" arrivalSpeed="8.20" duration="104.00" routeLength="698.43" waitingTime="33.00" waitingCount="1" stopTime="0.00" timeLoss="47.89" rerouteNo="0" devices="tripinfo_veh136" vType="truck" speedFactor="1.01" vaporized=""/>
    <tripinfo id="veh72" depart="25.00" departLane="edge1688_0" departPos="0.20" departSpeed="0.00" departDelay="0.00" arrival="158.00" arrivalLane="edge1387_2" arrivalPos="0.20" arrivalSpeed="12.99" duration="133.00" routeLength="801.92" waitingTime="33.00" waitingCount="3" stopTime="0.00" timeLoss="57.69" rerouteNo="0" devices="tripinfo_veh72" vType="bus" speedFactor="1.00" vaporized=""/>
    <tripinfo id="veh59" depart="22.00" departLane="edge459_0" departPos="5.10" departSpeed="0.00" departDelay="2.00" arrival="159.00" arrivalLane="edge1082_3" arrivalPos="3.97" arrivalSpeed="5.68" duration="137.00" routeLength="594.68" waitingTime="53.00" waitingCount="5" stopTime="0.00" timeLoss="87.45" rerouteNo="0" devices="tripinfo_veh59" vType="passenger" speedFactor="0.90" vaporized=""/>
    <tripinfo id="veh314" depart="113.00" departLane="edge92_0" departPos="0.20" departSpeed="0.00" departDelay="6.00" arrival="160.00" arrivalLane="edge990_0" arrivalPos="0.20" arrivalSpeed="7.58" duration="47.00" routeLength="416.62" waitingTime="0.00" waitingCount="0" stopTime="0.00" timeLoss="9.30" rerouteNo="0" devices="tripinfo_veh314" vType="truck" speedFactor="0.98" vaporized=""/>
    <tripinfo id="veh137" depart="56.00" departLane="edge1114_0" departPos="5.10" departSpeed="0.00" departDelay="9.00" arrival="161.00" arrivalLane="edge1701_0" arrivalPos="15.05" arrivalSpeed="7.05" duration="105.00" routeLength="700.53" waitingTime="27.00" waitingCount="1" stopTime="0.00" timeLoss="41.35" rerouteNo="0" devices="tripinfo_veh137" vType="passenger" speedFactor="0.89" vaporized=""/>
    <tripinfo id="veh315" depart="117.00" departLane="edge92_0" departPos="0.20" departSpeed="0.00" departDelay="10.00" arrival="163.00" arrivalLane="edge990_0" arrivalPos="0.20" arrivalSpeed="7.11" duration="46.00" routeLength="416.62" waitingTime="0.00" waitingCount="0" stopTime="0.00" timeLoss="8.81" rerouteNo="0" devices="tripinfo_veh315" vType="passenger" speedFactor="0.98" vaporized=""/>
    <tripinfo id="veh118" depart="46.00" departLane="edge239_0" departPos="7.20" departSpeed="0.00" departDelay="5.00" arrival="164.00" arrivalLane="edge814_2" arrivalPos="10.65" arrivalSpeed="13.33" duration="118.00" routeLength="615.64" waitingTime="44.00" waitingCount="1" stopTime="0.00" timeLoss="58.38" rerouteNo="0" devices="tripinfo_veh118" vType="truck" speedFactor="1.00" vaporized=""/>
    <tripinfo id="veh119" depart="50.00" departLane="edge239_0" departPos="5.10" departSpeed="0.00" departDelay="9.00" arrival="166.00" arrivalLane="edge814_2" arrivalPos="10.65" arrivalSpeed="14.73" duration="116.00" routeLength="617.74" waitingTime="44.00" waitingCount="1" stopTime="0.00" timeLoss="60.67" rerouteNo="0" devices="tripinfo_veh119" vType="passenger" speedFactor="1.09" vaporized=""/>
    <tripinfo id="veh17" depart="13.00" departLane="edge1402_0" departPos="5.10" departSpeed="0.00" departDelay="8.00" arrival="169.00" arrivalLane="edge1930_0" arrivalPos="57.15" arrivalSpeed="13.45" duration="156.00" routeLength="1122.48" waitingTime="38.00" waitingCount="3" stopTime="0.00" timeLoss="64.62" rerouteNo="0" devices="tripinfo_veh17" vType="passenger" speedFactor="1.03" vaporized=""/>
    <tripinfo id="veh73" depart="26.00" departLane="edge1688_0" departPos="0.20" departSpeed="0.00" departDelay="1.00" arrival="169.00" arrivalLane="edge1387_2" arrivalPos="0.20" arrivalSpeed="12.55" duration="143.00" routeLength="801.92" waitingTime="30.00" waitingCount="4" stopTime="0.00" timeLoss="62.71" rerouteNo="0" devices="tripinfo_veh73" vType="truck" speedFactor="0.94" vaporized=""/>
    <tripinfo id="veh54" depart="19.00" departLane="edge747_0" departPos="0.20" departSpeed="0.00" departDelay="0.00" arrival="170.00" arrivalLane="edge220_0" arrivalPos="9.92" arrivalSpeed="8.15" duration="151.00" routeLength="731.62" waitingTime="39.00" waitingCount="1" stopTime="0.00" timeLoss="61.64" rerouteNo="0" devices="tripinfo_veh54" vType="bus" speedFactor="1.00" vaporized=""/>
    <tripinfo id="veh16" depart="9.00" departLane="edge1402_0" departPos="7.20" departSpeed="0.00" departDelay="4.00" arrival="172.00" arrivalLane="edge1930_0" arrivalPos="57.15" arrivalSpeed="14.28" duration="163.00" routeLength="1120.38" waitingTime="34.00" waitingCount="3" stopTime="0.00" timeLoss="73.09" rerouteNo="0" devices="tripinfo_veh16" vType="truck" speedFactor="1.05" vaporized=""/>
    <tripinfo id="veh74" depart="27.00" departLane="edge1688_0" departPos="0.20" departSpeed="0.00" departDelay="2.00" arrival="172.00" arrivalLane="edge1387_2" arrivalPos="0.20" arrivalSpeed="11.76" duration="145.00" routeLength="801.92" waitingTime="25.00" waitingCount="5" stopTime="0.00" timeLoss="56.23" rerouteNo="0" devices="tripinfo_veh74" vType="passenger" speedFactor="0.85" vaporized=""/>
    <tripinfo id="veh56" depart="30.00" departLane="edge747_0" departPos="0.20" departSpeed="0.00" departDelay="11.00" arrival="173.00" arrivalLane="edge220_0" arrivalPos="9.92" arrivalSpeed="9.08" duration="143.00" routeLength="731.62" waitingTime="38.00" waitingCount="1" stopTime="0.00" timeLoss="67.05" rerouteNo="0" devices="tripinfo_veh56" vType="passenger" speedFactor="1.18" vaporized=""/>
    <tripinfo id="veh15" depart="5.00" departLane="edge1402_0" departPos="12.10" departSpeed="0.00" departDelay="0.00" arrival="177.00" arrivalLane="edge1930_0" arrivalPos="57.15" arrivalSpeed="13.69" duration="172.00" routeLength="1115.48" waitingTime="45.00" waitingCount="2" stopTime="0.00" timeLoss="78.46" rerouteNo="0" devices="tripinfo_veh15" vType="bus" speedFactor="1.00" vaporized=""/>
    <tripinfo id="veh55" depart="25.00" departLane="edge747_0" departPos="0.20" departSpeed="0.00" departDelay="6.00" arrival="177.00" arrivalLane="edge220_0" arrivalPos="9.92" arrivalSpeed="7.93" duration="152.00" routeLength="731.62" waitingTime="38.00" waitingCount="1" stopTime="0.00" timeLoss="61.13" rerouteNo="0" devices="tripinfo_veh55" vType="truck" speedFactor="0.99" vaporized=""/>
    <tripinfo id="veh111" depart="39.00" departLane="edge149_0" departPos="10.92" departSpeed="0.00" departDelay="0.00" arrival="182.00" arrivalLane="edge1453_0" arrivalPos="0.20" arrivalSpeed="8.33" duration="143.00" routeLength="1150.73" waitingTime="6.00" waitingCount="3" stopTime="0.00" timeLoss="46.44" rerouteNo="0" devices="tripinfo_veh111" vType="bus" speedFactor="1.00" vaporized=""/>
    <tripinfo id="veh433" depart="147.00" departLane="edge525_0" departPos="12.10" departSpeed="0.00" departDelay="0.00" arrival="183.00" arrivalLane="edge2018_2" arrivalPos="0.57" arrivalSpeed="7.99" duration="36.00" routeLength="205.09" waitingTime="0.00" waitingCount="0" stopTime="0.00" timeLoss="16.17" rerouteNo="0" devices="tripinfo_veh433" vType="bus" speedFactor="1.00" vaporized=""/>
    <tripinfo id="veh212" depart="77.00" departLane="edge1786_0" departPos="5.10" departSpeed="0.00" departDelay="5.00" arrival="184.00" arrivalLane="edge1391_0" arrivalPos="2.72" arrivalSpeed="6.70" duration="107.00" routeLength="870.58" waitingTime="9.00" waitingCount="1" stopTime="0.00" timeLoss="31.44" rerouteNo="0" devices="tripinfo_veh212" vType="passenger" speedFactor="1.16" vaporized=""/>
    <tripinfo id="veh265" depart="91.00" departLane="edge969_0" departPos="0.20" departSpeed="0.00" departDelay="0.00" arrival="186.00" arrivalLane="edge1178_0" arrivalPos="0.20" arrivalSpeed="4.87" duration="95.00" routeLength="589.19" waitingTime="23.00" waitingCount="1" stopTime="0.00" timeLoss="38.68" rerouteNo="0" devices="tripinfo_veh265" vType="bus" speedFactor="1.00" vaporized=""/>
    <tripinfo id="veh112" depart="40.00" departLane="edge149_0" departPos="7.20" departSpeed="0.00" departDelay="1.00" arrival="188.00" arrivalLane="edge1453_0" arrivalPos="0.20" arrivalSpeed="7.96" duration="148.00" routeLength="1154.45" waitingTime="4.00" waitingCount="2" stopTime="0.00" timeLoss="49.27" rerouteNo="0" devices="tripinfo_veh112" vType="truck" speedFactor="0.98" vaporized=""/>
    <tripinfo id="veh266" depart="96.00" departLane="edge969_0" departPos="0.20" departSpeed="0.00" departDelay="5.00" arrival="190.00" arrivalLane="edge1178_0" arrivalPos="0.20" arrivalSpeed="5.16" duration="94.00" routeLength="589.19" waitingTime="21.00" waitingCount="1" stopTime="0.00" timeLoss="39.90" rerouteNo="0" devices="tripinfo_veh266" vType="truck" speedFactor="1.04" vaporized=""/>
    <tripinfo id="veh434" depart="148.00" departLane="edge525_0" departPos="7.20" departSpeed="0.00" departDelay="1.00" arrival="190.00" arrivalLane="edge2018_2" arrivalPos="0.57" arrivalSpeed="8.55" duration="42.00" routeLength="209.99" waitingTime="7.00" waitingCount="2" stopTime="0.00" timeLoss="21.78" rerouteNo="0" devices="tripinfo_veh434" vType="truck" speedFactor="1.05" vaporized=""/>
    <tripinfo id="veh153" depart="53.00" departLane="edge1202_0" departPos="0.20" departSpeed="0.00" departDelay="0.00" arrival="192.00" arrivalLane="edge1801_2" arrivalPos="0.20" arrivalSpeed="7.98" duration="139.00" routeLength="855.14" waitingTime="15.00" waitingCount="1" stopTime="0.00" timeLoss="38.67" rerouteNo="0" devices="tripinfo_veh153" vType="bus" speedFactor="1.00" vaporized=""/>
    <tripinfo id="veh267" depart="100.00" departLane="edge969_0" departPos="0.20" departSpeed="0.00" departDelay="9.00" arrival="193.00" arrivalLane="edge1178_0" arrivalPos="0.20" arrivalSpeed="4.71" duration="93.00" routeLength="589.19" waitingTime="20.00" waitingCount="1" stopTime="0.00" timeLoss="38.74" rerouteNo="0" devices="tripinfo_veh267" vType="passenger" speedFactor="1.03" vaporized=""/>
    <tripinfo id="veh21" depart="7.00" departLane="edge36_0" departPos="12.10" departSpeed="0.00" departDelay="0.00" arrival="196.00" arrivalLane="edge2004_1" arrivalPos="10.97" arrivalSpeed="7.64" duration="189.00" routeLength="969.83" waitingTime="50.00" waitingCount="3" stopTime="0.00" timeLoss="82.69" rerouteNo="0" devices="tripinfo_veh21" vType="bus" speedFactor="1.00" vaporized=""/>
    <tripinfo id="veh120" depart="42.00" departLane="edge1740_0" departPos="0.20" departSpeed="0.00" departDelay="0.00" arrival="196.00" arrivalLane="edge1404_1" arrivalPos="0.20" arrivalSpeed="13.56" duration="154.00" routeLength="936.79" waitingTime="35.00" waitingCount="2" stopTime="0.00" timeLoss="66.72" rerouteNo="0" devices="tripinfo_veh120" vType="bus" speedFactor="1.00" vaporized=""/>
    <tripinfo id="veh225" depart="77.00" departLane="edge1220_0" departPos="12.10" departSpeed="0.00" departDelay="0.00" arrival="197.00" arrivalLane="edge1414_0" arrivalPos="19.62" arrivalSpeed="8.25" duration="120.00" routeLength="694.11" waitingTime="28.00" waitingCount="3" stopTime="0.00" timeLoss="64.56" rerouteNo="0" devices="tripinfo_veh225" vType="bus" speedFactor="1.00" vaporized=""/>
    <tripinfo id="veh337" depart="115.00" departLane="edge1146_0" departPos="12.10" departSpeed="0.00" departDelay="0.00" arrival="197.00" arrivalLane="edge1341_0" arrivalPos="13.66" arrivalSpeed="7.83" duration="82.00" routeLength="566.68" waitingTime="6.00" waitingCount="1" stopTime="0.00" timeLoss="26.96" rerouteNo="0" devices="tripinfo_veh337" vType="bus" speedFactor="1.00" vaporized=""/>
    <tripinfo id="veh156" depart="54.00" departLane="edge1843_0" departPos="0.20" departSpeed="0.00" departDelay="0.00" arrival="198.00" arrivalLane="edge914_0" arrivalPos="131.30" arrivalSpeed="8.29" duration="144.00" routeLength="865.55" waitingTime="0.00" waitingCount="0" stopTime="0.00" timeLoss="21.87" rerouteNo="0" devices="tripinfo_veh156" vType="bus" speedFactor="1.00" vaporized=""/>
    <tripinfo id="veh22" depart="12.00" departLane="edge36_0" departPos="7.20" departSpeed="0.00" departDelay="5.00" arrival="199.00" arrivalLane="edge2004_1" arrivalPos="10.97" arrivalSpeed="8.24" duration="187.00" routeLength="974.73" waitingTime="43.00" waitingCount="3" stopTime="0.00" timeLoss="79.50" rerouteNo="0" devices="tripinfo_veh22" vType="truck" speedFactor="1.00" vaporized=""/>
    <tripinfo id="veh121" depart="47.00" departLane="edge1740_0" departPos="0.20" departSpeed="0.00" departDelay="5.00" arrival="199.00" arrivalLane="edge1404_1" arrivalPos="0.20" arrivalSpeed="13.70" duration="152.00" routeLength="936.79" waitingTime="31.00" waitingCount="2" stopTime="0.00" timeLoss="64.78" rerouteNo="0" devices="tripinfo_veh121" vType="truck" speedFactor="1.02" vaporized=""/>
    <tripinfo id="veh23" depart="16.00" departLane="edge36_0" departPos="5.10" departSpeed="0.00" departDelay="9.00" arrival="201.00" arrivalLane="edge2004_1" arrivalPos="10.97" arrivalSpeed="7.62" duration="185.00" routeLength="976.83" waitingTime="34.00" waitingCount="3" stopTime="0.00" timeLoss="70.11" rerouteNo="0" devices="tripinfo_veh23" vType="passenger" speedFactor="0.93" vaporized=""/>
    <tripinfo id="veh122" depart="51.00" departLane="edge1740_0" departPos="0.20" departSpeed="0.00" departDelay="9.00" arrival="201.00" arrivalLane="edge1404_1" arrivalPos="0.20" arrivalSpeed="13.20" duration="150.00" routeLength="936.79" waitingTime="28.00" waitingCount="2" stopTime="0.00" timeLoss="61.87" rerouteNo="0" devices="tripinfo_veh122" vType="passenger" speedFactor="1.00" vaporized=""/>
    <tripinfo id="veh227" depart="82.00" departLane="edge1220_0" departPos="5.10" departSpeed="0.00" departDelay="5.00" arrival="201.00" arrivalLane="edge1414_0" arrivalPos="19.62" arrivalSpeed="7.99" duration="119.00" routeLength="701.11" waitingTime="27.00" waitingCount="3" stopTime="0.00" timeLoss="63.64" rerouteNo="0" devices="tripinfo_veh227" vType="passenger" speedFactor="1.00" vaporized=""/>